HEADER
"PSFversion" "1.00"
"Time Stamp" "Apr  3 17:37:14 2018"
TYPE
"variable" STRUCT(
"value" FLOAT DOUBLE
) PROP( "key" "element" )
VALUE
"temp" "variable" ( 27 ) PROP( )
END
