HEADER
"PSFversion" "1.00"
"Time Stamp" "Mar 22 14:18:50 2018"
TYPE
"variable" STRUCT(
"value" FLOAT DOUBLE
) PROP( "key" "element" )
VALUE
"temp" "variable" ( 27 ) PROP( )
END
